;
;   File temp_topol.top  was generated
;   By user: noeobersteiner (501)
;   On host:Noes-Air 
;   At date:Fri. May  5 15:32:24 2025 
;
;   This is a standalone topology file
;
;   Created by:
;   ParmEd:       example1.py, VERSION4.3.0 
;   Executable:   example1.py
;   Library dir:  /usr/local/gromacs/share/gromacs/top
;   Command line:
;     /Users/noeobersteiner/source/metallicious/metallicious/examples/example1_quick_start/example1.py
;

[ defaults ]
; nbfunc        comb-rule       gen-pairs       fudgeLJ fudgeQQ
1               2               yes             1            1           

[ atomtypes ]
; name    at.num    mass    charge ptype  sigma      epsilon
Ru            44 101.070000  0.00000000  A     0.26397329       0.234304
c3             6  12.010000  0.00000000  A     0.33996695      0.4577296
hn             1   1.008000  0.00000000  A     0.10690785      0.0656888
cc             6  12.010000  0.00000000  A     0.33996695       0.359824
na             7  14.010000  0.00000000  A     0.32499985        0.71128
ha             1   1.008000  0.00000000  A     0.25996425        0.06276
nd             7  14.010000  0.00000000  A     0.32499985        0.71128
ca             6  12.010000  0.00000000  A     0.33996695       0.359824
nb             7  14.010000  0.00000000  A     0.32499985        0.71128
h4             1   1.008000  0.00000000  A     0.25105526        0.06276
hc             1   1.008000  0.00000000  A     0.26495328      0.0656888


[ moleculetype ]
; Name            nrexcl
system1          3

[ atoms ]
;   nr       type  resnr residue  atom   cgnr    charge       mass  typeB    chargeB      massB
; residue    1 Ru rtp Ru q -0.5
    1         Ru      1     Ru     Ru      1 -0.46705080 101.070000   ; qtot -0.467051
; residue    2 UNK rtp UNK q 0.8
    2         c3      2    UNK     C0      2 -0.18050149  12.010000   ; qtot -0.647552
    3         hn      2    UNK     H1      3 0.31382482   1.008000   ; qtot -0.333727
    4         cc      2    UNK     C2      4 0.61558262  12.010000   ; qtot 0.281855
    5         na      2    UNK     N3      5 -0.27213727  14.010000   ; qtot 0.009718
    6         ha      2    UNK     H4      6 0.17367429   1.008000   ; qtot 0.183392
    7         nd      2    UNK     N5      7 -0.61801636  14.010000   ; qtot -0.434624
    8         ca      2    UNK     C6      8 -0.08664415  12.010000   ; qtot -0.521268
    9         ca      2    UNK     C7      9 -0.15313818  12.010000   ; qtot -0.674407
   10         ha      2    UNK     H8     10 0.19218233   1.008000   ; qtot -0.482224
   11         ca      2    UNK     C9     11 0.01424843  12.010000   ; qtot -0.467976
   12         ca      2    UNK    C10     12 0.14284847  12.010000   ; qtot -0.325127
   13         ca      2    UNK    C11     13 -0.13637637  12.010000   ; qtot -0.461504
   14         ca      2    UNK    C12     14 0.02209802  12.010000   ; qtot -0.439406
   15         ca      2    UNK    C13     15 0.13336398  12.010000   ; qtot -0.306042
   16         ca      2    UNK    C14     16 0.09969923  12.010000   ; qtot -0.206342
   17         ha      2    UNK    H15     17 0.21648541   1.008000   ; qtot 0.010143
   18         ca      2    UNK    C16     18 0.04477287  12.010000   ; qtot 0.054916
   19         ca      2    UNK    C17     19 -0.11158718  12.010000   ; qtot -0.056671
   20         nb      2    UNK    N18     20 -0.08558635  14.010000   ; qtot -0.142258
   21         h4      2    UNK    H19     21 0.11078849   1.008000   ; qtot -0.031469
   22         nb      2    UNK    N20     22 -0.06143893  14.010000   ; qtot -0.092908
   23         ca      2    UNK    C21     23 -0.16558184  12.010000   ; qtot -0.258490
   24         ca      2    UNK    C22     24 0.11980072  12.010000   ; qtot -0.138689
   25         ha      2    UNK    H23     25 0.18903368   1.008000   ; qtot 0.050344
   26         h4      2    UNK    H24     26 0.11685503   1.008000   ; qtot 0.167199
   27         hc      2    UNK    H25     27 0.06270000   1.008000   ; qtot 0.229899
   28         hc      2    UNK    H26     28 0.06270000   1.008000   ; qtot 0.292599
   29         hc      2    UNK    H27     29 0.06270000   1.008000   ; qtot 0.355299
; residue    3 UNK rtp UNK q 0.8
   30         c3      3    UNK     C0     30 -0.18050149  12.010000   ; qtot 0.174798
   31         hn      3    UNK     H1     31 0.31382482   1.008000   ; qtot 0.488623
   32         cc      3    UNK     C2     32 0.61558262  12.010000   ; qtot 1.104205
   33         na      3    UNK     N3     33 -0.27213727  14.010000   ; qtot 0.832068
   34         ha      3    UNK     H4     34 0.17367429   1.008000   ; qtot 1.005742
   35         nd      3    UNK     N5     35 -0.61801636  14.010000   ; qtot 0.387726
   36         ca      3    UNK     C6     36 -0.08664415  12.010000   ; qtot 0.301082
   37         ca      3    UNK     C7     37 -0.15313818  12.010000   ; qtot 0.147944
   38         ha      3    UNK     H8     38 0.19218233   1.008000   ; qtot 0.340126
   39         ca      3    UNK     C9     39 0.01424843  12.010000   ; qtot 0.354375
   40         ca      3    UNK    C10     40 0.14284847  12.010000   ; qtot 0.497223
   41         ca      3    UNK    C11     41 -0.13637637  12.010000   ; qtot 0.360847
   42         ca      3    UNK    C12     42 0.02209802  12.010000   ; qtot 0.382945
   43         ca      3    UNK    C13     43 0.13336398  12.010000   ; qtot 0.516309
   44         ca      3    UNK    C14     44 0.09969923  12.010000   ; qtot 0.616008
   45         ha      3    UNK    H15     45 0.21648541   1.008000   ; qtot 0.832493
   46         ca      3    UNK    C16     46 0.04477287  12.010000   ; qtot 0.877266
   47         ca      3    UNK    C17     47 -0.11158718  12.010000   ; qtot 0.765679
   48         nb      3    UNK    N18     48 -0.08558635  14.010000   ; qtot 0.680093
   49         h4      3    UNK    H19     49 0.11078849   1.008000   ; qtot 0.790881
   50         nb      3    UNK    N20     50 -0.06143893  14.010000   ; qtot 0.729442
   51         ca      3    UNK    C21     51 -0.16558184  12.010000   ; qtot 0.563860
   52         ca      3    UNK    C22     52 0.11980072  12.010000   ; qtot 0.683661
   53         ha      3    UNK    H23     53 0.18903368   1.008000   ; qtot 0.872695
   54         h4      3    UNK    H24     54 0.11685503   1.008000   ; qtot 0.989550
   55         hc      3    UNK    H25     55 0.06270000   1.008000   ; qtot 1.052250
   56         hc      3    UNK    H26     56 0.06270000   1.008000   ; qtot 1.114950
   57         hc      3    UNK    H27     57 0.06270000   1.008000   ; qtot 1.177650
; residue    4 UNK rtp UNK q 0.8
   58         c3      4    UNK     C0     58 -0.18050149  12.010000   ; qtot 0.997148
   59         hn      4    UNK     H1     59 0.31382482   1.008000   ; qtot 1.310973
   60         cc      4    UNK     C2     60 0.61558262  12.010000   ; qtot 1.926556
   61         na      4    UNK     N3     61 -0.27213727  14.010000   ; qtot 1.654418
   62         ha      4    UNK     H4     62 0.17367429   1.008000   ; qtot 1.828093
   63         nd      4    UNK     N5     63 -0.61801636  14.010000   ; qtot 1.210076
   64         ca      4    UNK     C6     64 -0.08664415  12.010000   ; qtot 1.123432
   65         ca      4    UNK     C7     65 -0.15313818  12.010000   ; qtot 0.970294
   66         ha      4    UNK     H8     66 0.19218233   1.008000   ; qtot 1.162476
   67         ca      4    UNK     C9     67 0.01424843  12.010000   ; qtot 1.176725
   68         ca      4    UNK    C10     68 0.14284847  12.010000   ; qtot 1.319573
   69         ca      4    UNK    C11     69 -0.13637637  12.010000   ; qtot 1.183197
   70         ca      4    UNK    C12     70 0.02209802  12.010000   ; qtot 1.205295
   71         ca      4    UNK    C13     71 0.13336398  12.010000   ; qtot 1.338659
   72         ca      4    UNK    C14     72 0.09969923  12.010000   ; qtot 1.438358
   73         ha      4    UNK    H15     73 0.21648541   1.008000   ; qtot 1.654844
   74         ca      4    UNK    C16     74 0.04477287  12.010000   ; qtot 1.699616
   75         ca      4    UNK    C17     75 -0.11158718  12.010000   ; qtot 1.588029
   76         nb      4    UNK    N18     76 -0.08558635  14.010000   ; qtot 1.502443
   77         h4      4    UNK    H19     77 0.11078849   1.008000   ; qtot 1.613231
   78         nb      4    UNK    N20     78 -0.06143893  14.010000   ; qtot 1.551792
   79         ca      4    UNK    C21     79 -0.16558184  12.010000   ; qtot 1.386211
   80         ca      4    UNK    C22     80 0.11980072  12.010000   ; qtot 1.506011
   81         ha      4    UNK    H23     81 0.18903368   1.008000   ; qtot 1.695045
   82         h4      4    UNK    H24     82 0.11685503   1.008000   ; qtot 1.811900
   83         hc      4    UNK    H25     83 0.06270000   1.008000   ; qtot 1.874600
   84         hc      4    UNK    H26     84 0.06270000   1.008000   ; qtot 1.937300
   85         hc      4    UNK    H27     85 0.06270000   1.008000   ; qtot 2.000000

[ bonds ]
;    ai     aj funct         c0         c1         c2         c3
      2      4     1   0.14820 226577.825600
      4      5     1   0.13750 252436.619200
      4      7     1   0.13150 366123.430400
      5      8     1   0.13690 293546.092800
      7     12     1   0.13590 283199.897600
      8     11     1   0.14250 264251.398400
      8     12     1   0.13990 282091.137600
      9     11     1   0.14090 286634.124800
      9     13     1   0.13810 351540.516800
     11     15     1   0.14210 257723.521600
     12     14     1   0.14300 256972.075200
     13     16     1   0.14010 300495.716800
     14     18     1   0.14120 272236.980800
     14     19     1   0.14070 291927.721600
     15     18     1   0.14370 230922.491200
     15     20     1   0.13600 272135.728000
     16     20     1   0.13310 338675.553600
     18     22     1   0.13610 272991.774400
     19     23     1   0.13820 353353.862400
     22     24     1   0.13310 340632.828800
     23     24     1   0.14030 298737.600000
      2     27     1   0.10969 276646.080000
      2     28     1   0.10969 276646.080000
      2     29     1   0.10969 276646.080000
      3      5     1   0.10120 403074.844800
      6      9     1   0.10920 303352.552000
     10     13     1   0.10910 307848.678400
     16     21     1   0.10910 305336.604800
     17     19     1   0.10920 307074.638400
     23     25     1   0.10910 307390.112000
     24     26     1   0.10920 304431.187200
     30     32     1   0.14820 226577.825600
     32     33     1   0.13750 252436.619200
     32     35     1   0.13150 366123.430400
     33     36     1   0.13690 293546.092800
     35     40     1   0.13590 283199.897600
     36     39     1   0.14250 264251.398400
     36     40     1   0.13990 282091.137600
     37     39     1   0.14090 286634.124800
     37     41     1   0.13810 351540.516800
     39     43     1   0.14210 257723.521600
     40     42     1   0.14300 256972.075200
     41     44     1   0.14010 300495.716800
     42     46     1   0.14120 272236.980800
     42     47     1   0.14070 291927.721600
     43     46     1   0.14370 230922.491200
     43     48     1   0.13600 272135.728000
     44     48     1   0.13310 338675.553600
     46     50     1   0.13610 272991.774400
     47     51     1   0.13820 353353.862400
     50     52     1   0.13310 340632.828800
     51     52     1   0.14030 298737.600000
     30     55     1   0.10969 276646.080000
     30     56     1   0.10969 276646.080000
     30     57     1   0.10969 276646.080000
     31     33     1   0.10120 403074.844800
     34     37     1   0.10920 303352.552000
     38     41     1   0.10910 307848.678400
     44     49     1   0.10910 305336.604800
     45     47     1   0.10920 307074.638400
     51     53     1   0.10910 307390.112000
     52     54     1   0.10920 304431.187200
     58     60     1   0.14820 226577.825600
     60     61     1   0.13750 252436.619200
     60     63     1   0.13150 366123.430400
     61     64     1   0.13690 293546.092800
     63     68     1   0.13590 283199.897600
     64     67     1   0.14250 264251.398400
     64     68     1   0.13990 282091.137600
     65     67     1   0.14090 286634.124800
     65     69     1   0.13810 351540.516800
     67     71     1   0.14210 257723.521600
     68     70     1   0.14300 256972.075200
     69     72     1   0.14010 300495.716800
     70     74     1   0.14120 272236.980800
     70     75     1   0.14070 291927.721600
     71     74     1   0.14370 230922.491200
     71     76     1   0.13600 272135.728000
     72     76     1   0.13310 338675.553600
     74     78     1   0.13610 272991.774400
     75     79     1   0.13820 353353.862400
     78     80     1   0.13310 340632.828800
     79     80     1   0.14030 298737.600000
     58     83     1   0.10969 276646.080000
     58     84     1   0.10969 276646.080000
     58     85     1   0.10969 276646.080000
     59     61     1   0.10120 403074.844800
     62     65     1   0.10920 303352.552000
     66     69     1   0.10910 307848.678400
     72     77     1   0.10910 305336.604800
     73     75     1   0.10920 307074.638400
     79     81     1   0.10910 307390.112000
     80     82     1   0.10920 304431.187200
      1     78     1   0.20590 81124.412800
      1     76     1   0.20600 76309.465600
      1     50     1   0.20590 81124.412800
      1     48     1   0.20600 76309.465600
      1     22     1   0.20590 81124.412800
      1     20     1   0.20600 76309.465600

[ pairs ]
;    ai     aj funct         c0         c1         c2         c3
      2      8     1
      2     12     1
      4     11     1
      4     14     1
      5      9     1
      5     15     1
      5     14     1
      7     11     1
      7     18     1
      7     19     1
      8     13     1
      8     18     1
      8     20     1
      8     19     1
      9     12     1
      9     18     1
      9     20     1
     11     14     1
     11     16     1
     11     22     1
     12     15     1
     12     22     1
     12     23     1
     13     15     1
     14     20     1
     14     24     1
     15     19     1
     15     24     1
     16     18     1
     18     23     1
     19     22     1
      2      3     1
      3      7     1
      3     11     1
      3     12     1
     27      5     1
     28      5     1
     29      5     1
      6      8     1
      6     15     1
      6     10     1
      6     16     1
     27      7     1
     28      7     1
     29      7     1
      9     21     1
     10     11     1
     10     20     1
     10     21     1
     12     17     1
     14     25     1
     15     21     1
     17     18     1
     17     24     1
     17     25     1
     18     26     1
     19     26     1
     22     25     1
     25     26     1
     30     36     1
     30     40     1
     32     39     1
     32     42     1
     33     37     1
     33     43     1
     33     42     1
     35     39     1
     35     46     1
     35     47     1
     36     41     1
     36     46     1
     36     48     1
     36     47     1
     37     40     1
     37     46     1
     37     48     1
     39     42     1
     39     44     1
     39     50     1
     40     43     1
     40     50     1
     40     51     1
     41     43     1
     42     48     1
     42     52     1
     43     47     1
     43     52     1
     44     46     1
     46     51     1
     47     50     1
     30     31     1
     31     35     1
     31     39     1
     31     40     1
     55     33     1
     56     33     1
     57     33     1
     34     36     1
     34     43     1
     34     38     1
     34     44     1
     55     35     1
     56     35     1
     57     35     1
     37     49     1
     38     39     1
     38     48     1
     38     49     1
     40     45     1
     42     53     1
     43     49     1
     45     46     1
     45     52     1
     45     53     1
     46     54     1
     47     54     1
     50     53     1
     53     54     1
     58     64     1
     58     68     1
     60     67     1
     60     70     1
     61     65     1
     61     71     1
     61     70     1
     63     67     1
     63     74     1
     63     75     1
     64     69     1
     64     74     1
     64     76     1
     64     75     1
     65     68     1
     65     74     1
     65     76     1
     67     70     1
     67     72     1
     67     78     1
     68     71     1
     68     78     1
     68     79     1
     69     71     1
     70     76     1
     70     80     1
     71     75     1
     71     80     1
     72     74     1
     74     79     1
     75     78     1
     58     59     1
     59     63     1
     59     67     1
     59     68     1
     83     61     1
     84     61     1
     85     61     1
     62     64     1
     62     71     1
     62     66     1
     62     72     1
     83     63     1
     84     63     1
     85     63     1
     65     77     1
     66     67     1
     66     76     1
     66     77     1
     68     73     1
     70     81     1
     71     77     1
     73     74     1
     73     80     1
     73     81     1
     74     82     1
     75     82     1
     78     81     1
     81     82     1
      1     70     1
     48     74     1
     50     74     1
     20     74     1
     22     74     1
      1     79     1
      1     82     1
     76     80     1
     48     80     1
     50     80     1
     20     80     1
     22     80     1
     72     78     1
     44     78     1
     43     78     1
     46     78     1
     52     78     1
     15     78     1
     16     78     1
     18     78     1
     24     78     1
      1     67     1
     48     71     1
     50     71     1
     20     71     1
     22     71     1
      1     69     1
      1     77     1
     48     72     1
     50     72     1
     20     72     1
     22     72     1
     44     76     1
     43     76     1
     46     76     1
     52     76     1
     15     76     1
     16     76     1
     18     76     1
     24     76     1
      1     54     1
      1     51     1
     48     52     1
     20     52     1
     22     52     1
      1     42     1
     20     46     1
     22     46     1
     44     50     1
     15     50     1
     16     50     1
     18     50     1
     24     50     1
      1     39     1
     20     43     1
     22     43     1
      1     49     1
      1     41     1
     20     44     1
     22     44     1
     15     48     1
     16     48     1
     18     48     1
     24     48     1
      1     14     1
      1     26     1
      1     23     1
     20     24     1
     16     22     1
      1     11     1
      1     13     1
      1     21     1
      1     11     1
      1     13     1
      1     14     1
      1     21     1
      1     23     1
      1     26     1
      1     39     1
      1     41     1
      1     42     1
      1     49     1
      1     51     1
      1     54     1
      1     67     1
      1     69     1
      1     70     1
      1     77     1
      1     79     1
      1     82     1
     15     48     1
     15     50     1
     15     76     1
     15     78     1
     16     22     1
     16     48     1
     16     50     1
     16     76     1
     16     78     1
     18     48     1
     18     50     1
     18     76     1
     18     78     1
     20     24     1
     20     43     1
     20     44     1
     20     46     1
     20     52     1
     20     71     1
     20     72     1
     20     74     1
     20     80     1
     22     43     1
     22     44     1
     22     46     1
     22     52     1
     22     71     1
     22     72     1
     22     74     1
     22     80     1
     24     48     1
     24     50     1
     24     76     1
     24     78     1
     43     76     1
     43     78     1
     44     50     1
     44     76     1
     44     78     1
     46     76     1
     46     78     1
     48     52     1
     48     71     1
     48     72     1
     48     74     1
     48     80     1
     50     71     1
     50     72     1
     50     74     1
     50     80     1
     52     76     1
     52     78     1
     72     78     1
     76     80     1

[ angles ]
;    ai     aj     ak funct         c0         c1         c2         c3
      2      4      5     1   122.7070000 485.285424
      2      4      7     1   125.8970000 449.227712
      4      5      8     1   107.6990000 623.491312
      4      7     12     1   105.7050000 508.230480
      5      4      7     1   111.3950000 481.511456
      5      8     11     1   132.5240000 545.225408
      5      8     12     1   104.2360000 474.340080
      7     12      8     1   110.9650000 473.319184
      7     12     14     1   128.0350000 477.611968
      8     11      9     1   126.8070000 650.745888
      8     11     15     1   115.7410000 636.796432
      8     12     14     1   121.0000000 524.271936
      9     11     15     1   117.4520000 753.973536
      9     13     16     1   119.7570000 815.946944
     11      8     12     1   123.2400000 453.771536
     11      9     13     1   119.2300000 610.169456
     11     15     18     1   121.5910000 539.777840
     11     15     20     1   122.2220000 602.621520
     12     14     18     1   117.0540000 613.391136
     12     14     19     1   124.6100000 629.039296
     13     16     20     1   122.2190000 682.736752
     14     18     15     1   121.3730000 539.468224
     14     18     22     1   122.1020000 618.947488
     14     19     23     1   118.6080000 611.098304
     15     18     22     1   116.5240000 536.079184
     15     20     16     1   119.1160000 608.629744
     18     14     19     1   118.3360000 746.182928
     18     15     20     1   116.1870000 543.986944
     18     22     24     1   118.7150000 611.843056
     19     23     24     1   119.7200000 820.892432
     22     24     23     1   122.5150000 890.497456
      3      5      4     1   125.1090000 263.081552
      3      5      8     1   127.1920000 255.098480
      4      2     27     1   110.4900475 394.969600
      4      2     28     1   110.4900475 394.969600
      4      2     29     1   110.4900475 394.969600
      6      9     11     1   120.6940000 240.086288
      6      9     13     1   120.0750000 258.721824
      9     13     10     1   120.9670000 253.734496
     10     13     16     1   119.2760000 260.328480
     13     16     21     1   121.0950000 289.608112
     14     19     17     1   119.1360000 236.278848
     17     19     23     1   122.2570000 254.077584
     19     23     25     1   121.1330000 349.405840
     20     16     21     1   116.6860000 276.202576
     22     24     26     1   116.5490000 373.949184
     23     24     26     1   120.9350000 291.122720
     24     23     25     1   119.1470000 259.408000
     27      2     28     1   107.5800459 329.699200
     27      2     29     1   107.5800459 329.699200
     28      2     29     1   107.5800459 329.699200
     30     32     33     1   122.7070000 485.285424
     30     32     35     1   125.8970000 449.227712
     32     33     36     1   107.6990000 623.491312
     32     35     40     1   105.7050000 508.230480
     33     32     35     1   111.3950000 481.511456
     33     36     39     1   132.5240000 545.225408
     33     36     40     1   104.2360000 474.340080
     35     40     36     1   110.9650000 473.319184
     35     40     42     1   128.0350000 477.611968
     36     39     37     1   126.8070000 650.745888
     36     39     43     1   115.7410000 636.796432
     36     40     42     1   121.0000000 524.271936
     37     39     43     1   117.4520000 753.973536
     37     41     44     1   119.7570000 815.946944
     39     36     40     1   123.2400000 453.771536
     39     37     41     1   119.2300000 610.169456
     39     43     46     1   121.5910000 539.777840
     39     43     48     1   122.2220000 602.621520
     40     42     46     1   117.0540000 613.391136
     40     42     47     1   124.6100000 629.039296
     41     44     48     1   122.2190000 682.736752
     42     46     43     1   121.3730000 539.468224
     42     46     50     1   122.1020000 618.947488
     42     47     51     1   118.6080000 611.098304
     43     46     50     1   116.5240000 536.079184
     43     48     44     1   119.1160000 608.629744
     46     42     47     1   118.3360000 746.182928
     46     43     48     1   116.1870000 543.986944
     46     50     52     1   118.7150000 611.843056
     47     51     52     1   119.7200000 820.892432
     50     52     51     1   122.5150000 890.497456
     31     33     32     1   125.1090000 263.081552
     31     33     36     1   127.1920000 255.098480
     32     30     55     1   110.4900475 394.969600
     32     30     56     1   110.4900475 394.969600
     32     30     57     1   110.4900475 394.969600
     34     37     39     1   120.6940000 240.086288
     34     37     41     1   120.0750000 258.721824
     37     41     38     1   120.9670000 253.734496
     38     41     44     1   119.2760000 260.328480
     41     44     49     1   121.0950000 289.608112
     42     47     45     1   119.1360000 236.278848
     45     47     51     1   122.2570000 254.077584
     47     51     53     1   121.1330000 349.405840
     48     44     49     1   116.6860000 276.202576
     50     52     54     1   116.5490000 373.949184
     51     52     54     1   120.9350000 291.122720
     52     51     53     1   119.1470000 259.408000
     55     30     56     1   107.5800459 329.699200
     55     30     57     1   107.5800459 329.699200
     56     30     57     1   107.5800459 329.699200
     58     60     61     1   122.7070000 485.285424
     58     60     63     1   125.8970000 449.227712
     60     61     64     1   107.6990000 623.491312
     60     63     68     1   105.7050000 508.230480
     61     60     63     1   111.3950000 481.511456
     61     64     67     1   132.5240000 545.225408
     61     64     68     1   104.2360000 474.340080
     63     68     64     1   110.9650000 473.319184
     63     68     70     1   128.0350000 477.611968
     64     67     65     1   126.8070000 650.745888
     64     67     71     1   115.7410000 636.796432
     64     68     70     1   121.0000000 524.271936
     65     67     71     1   117.4520000 753.973536
     65     69     72     1   119.7570000 815.946944
     67     64     68     1   123.2400000 453.771536
     67     65     69     1   119.2300000 610.169456
     67     71     74     1   121.5910000 539.777840
     67     71     76     1   122.2220000 602.621520
     68     70     74     1   117.0540000 613.391136
     68     70     75     1   124.6100000 629.039296
     69     72     76     1   122.2190000 682.736752
     70     74     71     1   121.3730000 539.468224
     70     74     78     1   122.1020000 618.947488
     70     75     79     1   118.6080000 611.098304
     71     74     78     1   116.5240000 536.079184
     71     76     72     1   119.1160000 608.629744
     74     70     75     1   118.3360000 746.182928
     74     71     76     1   116.1870000 543.986944
     74     78     80     1   118.7150000 611.843056
     75     79     80     1   119.7200000 820.892432
     78     80     79     1   122.5150000 890.497456
     59     61     60     1   125.1090000 263.081552
     59     61     64     1   127.1920000 255.098480
     60     58     83     1   110.4900475 394.969600
     60     58     84     1   110.4900475 394.969600
     60     58     85     1   110.4900475 394.969600
     62     65     67     1   120.6940000 240.086288
     62     65     69     1   120.0750000 258.721824
     65     69     66     1   120.9670000 253.734496
     66     69     72     1   119.2760000 260.328480
     69     72     77     1   121.0950000 289.608112
     70     75     73     1   119.1360000 236.278848
     73     75     79     1   122.2570000 254.077584
     75     79     81     1   121.1330000 349.405840
     76     72     77     1   116.6860000 276.202576
     78     80     82     1   116.5490000 373.949184
     79     80     82     1   120.9350000 291.122720
     80     79     81     1   119.1470000 259.408000
     83     58     84     1   107.5800459 329.699200
     83     58     85     1   107.5800459 329.699200
     84     58     85     1   107.5800459 329.699200
      1     78     74     1   113.5920000 628.545584
      1     78     80     1   127.6790000 667.381472
     76      1     78     1   79.9070000 665.850128
     48      1     78     1   95.3771262 627.870597
     50      1     78     1   173.8510644 674.720687
     20      1     78     1   89.2340491 773.755277
     22      1     78     1   96.3093755 669.716393
      1     76     71     1   113.7540000 717.447216
      1     76     72     1   127.1070000 773.178096
     48      1     76     1   88.2904100 642.297643
     50      1     76     1   95.9586432 423.871221
     20      1     76     1   96.5162046 530.061813
     22      1     76     1   174.8881596 503.592084
      1     50     52     1   127.6790000 667.381472
      1     50     46     1   113.5920000 628.545584
     48      1     50     1   79.9070000 665.850128
     20      1     50     1   95.7723386 794.892623
     22      1     50     1   88.0992911 488.886688
      1     48     43     1   113.7540000 717.447216
      1     48     44     1   127.1070000 773.178096
     20      1     48     1   173.8669197 678.723406
     22      1     48     1   95.4988841 894.933934
      1     22     18     1   113.5920000 628.545584
      1     22     24     1   127.6790000 667.381472
     20      1     22     1   79.9070000 665.850128
      1     20     15     1   113.7540000 717.447216
      1     20     16     1   127.1070000 773.178096

[ dihedrals ]
;    ai     aj     ak     al funct         c0         c1         c2         c3         c4         c5
      2      4      5      8     1  180.0000771  7.1128000  2
      2      4      7     12     1  180.0000771  19.8740000  2
      4      5      8     11     1  180.0000771  1.2552000  2
      4      5      8     12     1  180.0000771  1.2552000  2
      4      7     12      8     1  180.0000771  20.0832000  2
      4      7     12     14     1  180.0000771  20.0832000  2
      5      4      7     12     1  180.0000771  19.8740000  2
      5      8     11      9     1  180.0000771  15.1670000  2
      5      8     11     15     1  180.0000771  15.1670000  2
      5      8     12      7     1  180.0000771  15.1670000  2
      5      8     12     14     1  180.0000771  15.1670000  2
      7      4      5      8     1  180.0000771  7.1128000  2
      7     12      8     11     1  180.0000771  15.1670000  2
      7     12     14     18     1  180.0000771  15.1670000  2
      7     12     14     19     1  180.0000771  15.1670000  2
      8     11      9     13     1  180.0000771  15.1670000  2
      8     11     15     18     1  180.0000771  15.1670000  2
      8     11     15     20     1  180.0000771  15.1670000  2
      8     12     14     18     1  180.0000771  15.1670000  2
      8     12     14     19     1  180.0000771  15.1670000  2
      9     11      8     12     1  180.0000771  15.1670000  2
      9     11     15     18     1  180.0000771  15.1670000  2
      9     11     15     20     1  180.0000771  15.1670000  2
      9     13     16     20     1  180.0000771  15.1670000  2
     11      8     12     14     1  180.0000771  15.1670000  2
     11      9     13     16     1  180.0000771  15.1670000  2
     11     15     18     14     1  180.0000771  15.1670000  2
     11     15     18     22     1  180.0000771  15.1670000  2
     11     15     20     16     1  180.0000771  20.0832000  2
     12      8     11     15     1  180.0000771  15.1670000  2
     12     14     18     15     1  180.0000771  15.1670000  2
     12     14     18     22     1  180.0000771  15.1670000  2
     12     14     19     23     1  180.0000771  15.1670000  2
     13      9     11     15     1  180.0000771  15.1670000  2
     13     16     20     15     1  180.0000771  20.0832000  2
     14     18     15     20     1  180.0000771  15.1670000  2
     14     18     22     24     1  180.0000771  20.0832000  2
     14     19     23     24     1  180.0000771  15.1670000  2
     15     18     14     19     1  180.0000771  15.1670000  2
     15     18     22     24     1  180.0000771  20.0832000  2
     16     20     15     18     1  180.0000771  20.0832000  2
     18     14     19     23     1  180.0000771  15.1670000  2
     18     22     24     23     1  180.0000771  20.0832000  2
     19     14     18     22     1  180.0000771  15.1670000  2
     19     23     24     22     1  180.0000771  15.1670000  2
     20     15     18     22     1  180.0000771  15.1670000  2
      2      5      4      7     4  180.0000771  4.6024000  2
     11     12      8      5     4  180.0000771  4.6024000  2
      8      9     11     15     4  180.0000771  4.6024000  2
      8     14     12      7     4  180.0000771  4.6024000  2
     12     18     14     19     4  180.0000771  4.6024000  2
     11     18     15     20     4  180.0000771  4.6024000  2
     14     15     18     22     4  180.0000771  4.6024000  2
      2      4      5      3     1  180.0000771  7.1128000  2
      3      5      4      7     1  180.0000771  7.1128000  2
      3      5      8     11     1  180.0000771  1.2552000  2
      3      5      8     12     1  180.0000771  1.2552000  2
     27      2      4      5     1  0.0000000  0.0000000  3
     28      2      4      5     1  0.0000000  0.0000000  3
     29      2      4      5     1  0.0000000  0.0000000  3
      6      9     11      8     1  180.0000771  15.1670000  2
      6      9     11     15     1  180.0000771  15.1670000  2
      6      9     13     10     1  180.0000771  15.1670000  2
      6      9     13     16     1  180.0000771  15.1670000  2
     27      2      4      7     1  0.0000000  0.0000000  3
     28      2      4      7     1  0.0000000  0.0000000  3
     29      2      4      7     1  0.0000000  0.0000000  3
      9     13     16     21     1  180.0000771  15.1670000  2
     10     13      9     11     1  180.0000771  15.1670000  2
     10     13     16     20     1  180.0000771  15.1670000  2
     10     13     16     21     1  180.0000771  15.1670000  2
     12     14     19     17     1  180.0000771  15.1670000  2
     14     19     23     25     1  180.0000771  15.1670000  2
     15     20     16     21     1  180.0000771  20.0832000  2
     17     19     14     18     1  180.0000771  15.1670000  2
     17     19     23     24     1  180.0000771  15.1670000  2
     17     19     23     25     1  180.0000771  15.1670000  2
     18     22     24     26     1  180.0000771  20.0832000  2
     19     23     24     26     1  180.0000771  15.1670000  2
     22     24     23     25     1  180.0000771  15.1670000  2
     25     23     24     26     1  180.0000771  15.1670000  2
      8      4      5      3     4  180.0000771  4.6024000  2
     11     13      9      6     4  180.0000771  4.6024000  2
      9     16     13     10     4  180.0000771  4.6024000  2
     13     21     16     20     4  180.0000771  4.6024000  2
     14     23     19     17     4  180.0000771  4.6024000  2
     19     24     23     25     4  180.0000771  4.6024000  2
     23     26     24     22     4  180.0000771  4.6024000  2
     30     32     33     36     1  180.0000771  7.1128000  2
     30     32     35     40     1  180.0000771  19.8740000  2
     32     33     36     39     1  180.0000771  1.2552000  2
     32     33     36     40     1  180.0000771  1.2552000  2
     32     35     40     36     1  180.0000771  20.0832000  2
     32     35     40     42     1  180.0000771  20.0832000  2
     33     32     35     40     1  180.0000771  19.8740000  2
     33     36     39     37     1  180.0000771  15.1670000  2
     33     36     39     43     1  180.0000771  15.1670000  2
     33     36     40     35     1  180.0000771  15.1670000  2
     33     36     40     42     1  180.0000771  15.1670000  2
     35     32     33     36     1  180.0000771  7.1128000  2
     35     40     36     39     1  180.0000771  15.1670000  2
     35     40     42     46     1  180.0000771  15.1670000  2
     35     40     42     47     1  180.0000771  15.1670000  2
     36     39     37     41     1  180.0000771  15.1670000  2
     36     39     43     46     1  180.0000771  15.1670000  2
     36     39     43     48     1  180.0000771  15.1670000  2
     36     40     42     46     1  180.0000771  15.1670000  2
     36     40     42     47     1  180.0000771  15.1670000  2
     37     39     36     40     1  180.0000771  15.1670000  2
     37     39     43     46     1  180.0000771  15.1670000  2
     37     39     43     48     1  180.0000771  15.1670000  2
     37     41     44     48     1  180.0000771  15.1670000  2
     39     36     40     42     1  180.0000771  15.1670000  2
     39     37     41     44     1  180.0000771  15.1670000  2
     39     43     46     42     1  180.0000771  15.1670000  2
     39     43     46     50     1  180.0000771  15.1670000  2
     39     43     48     44     1  180.0000771  20.0832000  2
     40     36     39     43     1  180.0000771  15.1670000  2
     40     42     46     43     1  180.0000771  15.1670000  2
     40     42     46     50     1  180.0000771  15.1670000  2
     40     42     47     51     1  180.0000771  15.1670000  2
     41     37     39     43     1  180.0000771  15.1670000  2
     41     44     48     43     1  180.0000771  20.0832000  2
     42     46     43     48     1  180.0000771  15.1670000  2
     42     46     50     52     1  180.0000771  20.0832000  2
     42     47     51     52     1  180.0000771  15.1670000  2
     43     46     42     47     1  180.0000771  15.1670000  2
     43     46     50     52     1  180.0000771  20.0832000  2
     44     48     43     46     1  180.0000771  20.0832000  2
     46     42     47     51     1  180.0000771  15.1670000  2
     46     50     52     51     1  180.0000771  20.0832000  2
     47     42     46     50     1  180.0000771  15.1670000  2
     47     51     52     50     1  180.0000771  15.1670000  2
     48     43     46     50     1  180.0000771  15.1670000  2
     30     33     32     35     4  180.0000771  4.6024000  2
     39     40     36     33     4  180.0000771  4.6024000  2
     36     37     39     43     4  180.0000771  4.6024000  2
     36     42     40     35     4  180.0000771  4.6024000  2
     40     46     42     47     4  180.0000771  4.6024000  2
     39     46     43     48     4  180.0000771  4.6024000  2
     42     43     46     50     4  180.0000771  4.6024000  2
     30     32     33     31     1  180.0000771  7.1128000  2
     31     33     32     35     1  180.0000771  7.1128000  2
     31     33     36     39     1  180.0000771  1.2552000  2
     31     33     36     40     1  180.0000771  1.2552000  2
     55     30     32     33     1  0.0000000  0.0000000  3
     56     30     32     33     1  0.0000000  0.0000000  3
     57     30     32     33     1  0.0000000  0.0000000  3
     34     37     39     36     1  180.0000771  15.1670000  2
     34     37     39     43     1  180.0000771  15.1670000  2
     34     37     41     38     1  180.0000771  15.1670000  2
     34     37     41     44     1  180.0000771  15.1670000  2
     55     30     32     35     1  0.0000000  0.0000000  3
     56     30     32     35     1  0.0000000  0.0000000  3
     57     30     32     35     1  0.0000000  0.0000000  3
     37     41     44     49     1  180.0000771  15.1670000  2
     38     41     37     39     1  180.0000771  15.1670000  2
     38     41     44     48     1  180.0000771  15.1670000  2
     38     41     44     49     1  180.0000771  15.1670000  2
     40     42     47     45     1  180.0000771  15.1670000  2
     42     47     51     53     1  180.0000771  15.1670000  2
     43     48     44     49     1  180.0000771  20.0832000  2
     45     47     42     46     1  180.0000771  15.1670000  2
     45     47     51     52     1  180.0000771  15.1670000  2
     45     47     51     53     1  180.0000771  15.1670000  2
     46     50     52     54     1  180.0000771  20.0832000  2
     47     51     52     54     1  180.0000771  15.1670000  2
     50     52     51     53     1  180.0000771  15.1670000  2
     53     51     52     54     1  180.0000771  15.1670000  2
     36     32     33     31     4  180.0000771  4.6024000  2
     39     41     37     34     4  180.0000771  4.6024000  2
     37     44     41     38     4  180.0000771  4.6024000  2
     41     49     44     48     4  180.0000771  4.6024000  2
     42     51     47     45     4  180.0000771  4.6024000  2
     47     52     51     53     4  180.0000771  4.6024000  2
     51     54     52     50     4  180.0000771  4.6024000  2
     58     60     61     64     1  180.0000771  7.1128000  2
     58     60     63     68     1  180.0000771  19.8740000  2
     60     61     64     67     1  180.0000771  1.2552000  2
     60     61     64     68     1  180.0000771  1.2552000  2
     60     63     68     64     1  180.0000771  20.0832000  2
     60     63     68     70     1  180.0000771  20.0832000  2
     61     60     63     68     1  180.0000771  19.8740000  2
     61     64     67     65     1  180.0000771  15.1670000  2
     61     64     67     71     1  180.0000771  15.1670000  2
     61     64     68     63     1  180.0000771  15.1670000  2
     61     64     68     70     1  180.0000771  15.1670000  2
     63     60     61     64     1  180.0000771  7.1128000  2
     63     68     64     67     1  180.0000771  15.1670000  2
     63     68     70     74     1  180.0000771  15.1670000  2
     63     68     70     75     1  180.0000771  15.1670000  2
     64     67     65     69     1  180.0000771  15.1670000  2
     64     67     71     74     1  180.0000771  15.1670000  2
     64     67     71     76     1  180.0000771  15.1670000  2
     64     68     70     74     1  180.0000771  15.1670000  2
     64     68     70     75     1  180.0000771  15.1670000  2
     65     67     64     68     1  180.0000771  15.1670000  2
     65     67     71     74     1  180.0000771  15.1670000  2
     65     67     71     76     1  180.0000771  15.1670000  2
     65     69     72     76     1  180.0000771  15.1670000  2
     67     64     68     70     1  180.0000771  15.1670000  2
     67     65     69     72     1  180.0000771  15.1670000  2
     67     71     74     70     1  180.0000771  15.1670000  2
     67     71     74     78     1  180.0000771  15.1670000  2
     67     71     76     72     1  180.0000771  20.0832000  2
     68     64     67     71     1  180.0000771  15.1670000  2
     68     70     74     71     1  180.0000771  15.1670000  2
     68     70     74     78     1  180.0000771  15.1670000  2
     68     70     75     79     1  180.0000771  15.1670000  2
     69     65     67     71     1  180.0000771  15.1670000  2
     69     72     76     71     1  180.0000771  20.0832000  2
     70     74     71     76     1  180.0000771  15.1670000  2
     70     74     78     80     1  180.0000771  20.0832000  2
     70     75     79     80     1  180.0000771  15.1670000  2
     71     74     70     75     1  180.0000771  15.1670000  2
     71     74     78     80     1  180.0000771  20.0832000  2
     72     76     71     74     1  180.0000771  20.0832000  2
     74     70     75     79     1  180.0000771  15.1670000  2
     74     78     80     79     1  180.0000771  20.0832000  2
     75     70     74     78     1  180.0000771  15.1670000  2
     75     79     80     78     1  180.0000771  15.1670000  2
     76     71     74     78     1  180.0000771  15.1670000  2
     58     61     60     63     4  180.0000771  4.6024000  2
     67     68     64     61     4  180.0000771  4.6024000  2
     64     65     67     71     4  180.0000771  4.6024000  2
     64     70     68     63     4  180.0000771  4.6024000  2
     68     74     70     75     4  180.0000771  4.6024000  2
     67     74     71     76     4  180.0000771  4.6024000  2
     70     71     74     78     4  180.0000771  4.6024000  2
     58     60     61     59     1  180.0000771  7.1128000  2
     59     61     60     63     1  180.0000771  7.1128000  2
     59     61     64     67     1  180.0000771  1.2552000  2
     59     61     64     68     1  180.0000771  1.2552000  2
     83     58     60     61     1  0.0000000  0.0000000  3
     84     58     60     61     1  0.0000000  0.0000000  3
     85     58     60     61     1  0.0000000  0.0000000  3
     62     65     67     64     1  180.0000771  15.1670000  2
     62     65     67     71     1  180.0000771  15.1670000  2
     62     65     69     66     1  180.0000771  15.1670000  2
     62     65     69     72     1  180.0000771  15.1670000  2
     83     58     60     63     1  0.0000000  0.0000000  3
     84     58     60     63     1  0.0000000  0.0000000  3
     85     58     60     63     1  0.0000000  0.0000000  3
     65     69     72     77     1  180.0000771  15.1670000  2
     66     69     65     67     1  180.0000771  15.1670000  2
     66     69     72     76     1  180.0000771  15.1670000  2
     66     69     72     77     1  180.0000771  15.1670000  2
     68     70     75     73     1  180.0000771  15.1670000  2
     70     75     79     81     1  180.0000771  15.1670000  2
     71     76     72     77     1  180.0000771  20.0832000  2
     73     75     70     74     1  180.0000771  15.1670000  2
     73     75     79     80     1  180.0000771  15.1670000  2
     73     75     79     81     1  180.0000771  15.1670000  2
     74     78     80     82     1  180.0000771  20.0832000  2
     75     79     80     82     1  180.0000771  15.1670000  2
     78     80     79     81     1  180.0000771  15.1670000  2
     81     79     80     82     1  180.0000771  15.1670000  2
     64     60     61     59     4  180.0000771  4.6024000  2
     67     69     65     62     4  180.0000771  4.6024000  2
     65     72     69     66     4  180.0000771  4.6024000  2
     69     77     72     76     4  180.0000771  4.6024000  2
     70     79     75     73     4  180.0000771  4.6024000  2
     75     80     79     81     4  180.0000771  4.6024000  2
     79     82     80     78     4  180.0000771  4.6024000  2

[ dihedrals ]
;    ai     aj     ak     al funct         c0         c1         c2         c3
      1     15     16     20     2     0.0000000   306.4393077
      1     18     24     22     2     0.0000000   310.0888026
      1     43     44     48     2     0.0000000   306.4393077
      1     46     52     50     2     0.0000000   310.0888026
      1     71     72     76     2     0.0000000   306.4393077
      1     74     80     78     2     0.0000000   310.0888026

[ system ]
; Name
Generic title

[ molecules ]
; Compound       #mols
system1              1
